/*--------------------------------*- C++ -*----------------------------------*\
| =========                 |                                                 |
| \\      /  F ield         | OpenFOAM: The Open Source CFD Toolbox           |
|  \\    /   O peration     | Version:  2.4.0                                 |
|   \\  /    A nd           | Web:      www.OpenFOAM.org                      |
|    \\/     M anipulation  |                                                 |
\*---------------------------------------------------------------------------*/
FoamFile
{
    version     2.0;
    format      ascii;
    class       volVectorField;
    location    "0.135";
    object      U;
}
// * * * * * * * * * * * * * * * * * * * * * * * * * * * * * * * * * * * * * //

dimensions      [0 1 -1 0 0 0 0];

internalField   nonuniform List<vector> 
10000
(
(7.91174e-06 -7.82711e-06 0)
(2.11553e-05 -7.23913e-06 0)
(2.62573e-05 -4.88579e-06 0)
(2.26e-05 -2.84247e-06 0)
(1.08757e-05 -1.2115e-06 0)
(-7.57575e-06 5.60049e-08 0)
(-3.1445e-05 1.01282e-06 0)
(-5.95762e-05 1.73765e-06 0)
(-9.09621e-05 2.31043e-06 0)
(-0.000124697 2.78883e-06 0)
(-0.000159931 3.19518e-06 0)
(-0.000195841 3.5156e-06 0)
(-0.000231626 3.71183e-06 0)
(-0.000266528 3.74335e-06 0)
(-0.000299877 3.59248e-06 0)
(-0.000331138 3.28066e-06 0)
(-0.000359934 2.8686e-06 0)
(-0.000386045 2.43843e-06 0)
(-0.000409359 2.06461e-06 0)
(-0.000429802 1.78692e-06 0)
(-0.000447259 1.59728e-06 0)
(-0.000461519 1.44441e-06 0)
(-0.00047227 1.2565e-06 0)
(-0.000479139 9.78272e-07 0)
(-0.000481767 6.06061e-07 0)
(-0.000479767 1.85097e-07 0)
(-0.00047323 -4.80533e-07 0)
(-0.000462585 -1.07013e-06 0)
(-0.000448281 -1.47588e-06 0)
(-0.000431088 -1.65877e-06 0)
(-0.000411886 -1.637e-06 0)
(-0.000391503 -1.47895e-06 0)
(-0.000370598 -1.2791e-06 0)
(-0.000349615 -1.12357e-06 0)
(-0.000328806 -1.05899e-06 0)
(-0.000308302 -1.08027e-06 0)
(-0.000288201 -1.14142e-06 0)
(-0.000268628 -1.18094e-06 0)
(-0.000249766 -1.14776e-06 0)
(-0.000231853 -1.01913e-06 0)
(-0.000215164 -8.054e-07 0)
(-0.00019999 -5.42505e-07 0)
(-0.00018662 -2.793e-07 0)
(-0.000175321 -6.50822e-08 0)
(-0.00016632 6.83474e-08 0)
(-0.000159776 1.27216e-07 0)
(-0.000155715 1.35541e-07 0)
(-0.00015402 1.44857e-07 0)
(-0.00015441 1.30893e-07 0)
(-0.000156404 9.80572e-08 0)
(7.75754e-06 -2.08653e-05 0)
(1.27496e-05 -1.1864e-05 0)
(-2.26882e-06 5.53097e-06 0)
(-3.73818e-05 2.19767e-05 0)
(-9.1252e-05 3.61961e-05 0)
(-0.000161361 4.79455e-05 0)
(-0.000244772 5.72712e-05 0)
(-0.000338502 6.43823e-05 0)
(-0.000439684 6.95397e-05 0)
(-0.000545653 7.29658e-05 0)
(-0.000653986 7.48111e-05 0)
(-0.000762524 7.51618e-05 0)
(-0.000869377 7.40779e-05 0)
(-0.000972904 7.16399e-05 0)
(-0.00107167 6.79879e-05 0)
(-0.00116438 6.33309e-05 0)
(-0.00124987 5.7921e-05 0)
(-0.00132704 5.19985e-05 0)
(-0.00139486 4.57312e-05 0)
(-0.00145236 3.91718e-05 0)
(-0.00149863 3.22567e-05 0)
(-0.00153288 2.4849e-05 0)
(-0.00155438 1.68178e-05 0)
(-0.00156255 8.13514e-06 0)
(-0.00155703 -1.04639e-06 0)
(-0.00153784 -1.0373e-05 0)
(-0.00150531 -1.95625e-05 0)
(-0.00146027 -2.78755e-05 0)
(-0.0014044 -3.47743e-05 0)
(-0.00133983 -3.995e-05 0)
(-0.00126898 -4.33743e-05 0)
(-0.00119432 -4.5285e-05 0)
(-0.00111797 -4.60836e-05 0)
(-0.00104162 -4.61924e-05 0)
(-0.000966445 -4.59197e-05 0)
(-0.000893235 -4.53923e-05 0)
(-0.000822628 -4.45689e-05 0)
(-0.000755285 -4.33088e-05 0)
(-0.000692019 -4.14503e-05 0)
(-0.000633843 -3.88739e-05 0)
(-0.000581923 -3.55397e-05 0)
(-0.000537479 -3.14959e-05 0)
(-0.000501644 -2.6864e-05 0)
(-0.000475302 -2.18194e-05 0)
(-0.000458947 -1.65763e-05 0)
(-0.000452599 -1.13472e-05 0)
(-0.000455735 -6.3946e-06 0)
(-0.000467422 -1.85245e-06 0)
(-0.000486256 1.85032e-06 0)
(-0.000510281 4.47784e-06 0)
(5.39629e-06 -2.60301e-05 0)
(-4.25252e-06 2.5654e-06 0)
(-4.31112e-05 4.43504e-05 0)
(-0.000109996 8.41286e-05 0)
(-0.000202416 0.000119244 0)
(-0.000317172 0.000148759 0)
(-0.000450411 0.000172413 0)
(-0.000598059 0.000190404 0)
(-0.000756066 0.000203135 0)
(-0.000920573 0.000211028 0)
(-0.001088 0.000214456 0)
(-0.00125509 0.000213742 0)
(-0.00141893 0.000209192 0)
(-0.00157692 0.000201145 0)
(-0.00172675 0.000189996 0)
(-0.00186629 0.000176198 0)
(-0.00199365 0.000160214 0)
(-0.00210706 0.00014245 0)
(-0.00220491 0.000123189 0)
(-0.00228577 0.000102551 0)
(-0.00234832 8.05056e-05 0)
(-0.0023914 5.69521e-05 0)
(-0.00241402 3.18508e-05 0)
(-0.00241535 5.37528e-06 0)
(-0.00239489 -2.19564e-05 0)
(-0.00235266 -4.92522e-05 0)
(-0.00228937 -7.5191e-05 0)
(-0.00220661 -9.84686e-05 0)
(-0.00210709 -0.000117827 0)
(-0.00199438 -0.000132444 0)
(-0.00187255 -0.000142146 0)
(-0.00174566 -0.000147393 0)
(-0.00161723 -0.000149061 0)
(-0.00149005 -0.000148122 0)
(-0.00136614 -0.000145335 0)
(-0.00124699 -0.000141082 0)
(-0.00113388 -0.000135376 0)
(-0.00102819 -0.000128002 0)
(-0.000931518 -0.000118683 0)
(-0.000845723 -0.000107224 0)
(-0.000772799 -9.35959e-05 0)
(-0.000714701 -7.79733e-05 0)
(-0.000673114 -6.07167e-05 0)
(-0.000649249 -4.23468e-05 0)
(-0.000643649 -2.35087e-05 0)
(-0.000656127 -4.87392e-06 0)
(-0.000685537 1.26874e-05 0)
(-0.000730202 2.80269e-05 0)
(-0.000787692 4.04693e-05 0)
(-0.000854746 4.9203e-05 0)
(3.22102e-06 -2.21464e-05 0)
(-2.08575e-05 3.69403e-05 0)
(-8.28678e-05 0.000110705 0)
(-0.000179365 0.000180221 0)
(-0.000306318 0.000241894 0)
(-0.000459754 0.000294071 0)
(-0.000635106 0.000336056 0)
(-0.000827543 0.000367918 0)
(-0.00103221 0.000390131 0)
(-0.00124441 0.000403297 0)
(-0.00145968 0.000408034 0)
(-0.00167387 0.000404955 0)
(-0.00188316 0.000394698 0)
(-0.00208409 0.000377954 0)
(-0.00227351 0.000355472 0)
(-0.0024486 0.000328034 0)
(-0.00260687 0.000296384 0)
(-0.0027461 0.000261153 0)
(-0.00286437 0.000222785 0)
(-0.00295997 0.000181516 0)
(-0.00303138 0.000137413 0)
(-0.0030772 9.04934e-05 0)
(-0.00309613 4.09045e-05 0)
(-0.00308707 -1.08596e-05 0)
(-0.00304928 -6.37485e-05 0)
(-0.00298266 -0.000116109 0)
(-0.00288816 -0.000165667 0)
(-0.00276802 -0.000209918 0)
(-0.00262605 -0.000246518 0)
(-0.00246733 -0.000273859 0)
(-0.00229762 -0.000291506 0)
(-0.00212255 -0.000300211 0)
(-0.00194696 -0.000301529 0)
(-0.00177454 -0.000297261 0)
(-0.00160793 -0.000288874 0)
(-0.00144916 -0.000277173 0)
(-0.0013001 -0.00026231 0)
(-0.00116285 -0.000244002 0)
(-0.00103983 -0.000221815 0)
(-0.00093376 -0.000195407 0)
(-0.000847438 -0.000164694 0)
(-0.000783501 -0.000129959 0)
(-0.000744143 -9.18885e-05 0)
(-0.00073086 -5.15713e-05 0)
(-0.000744162 -1.04585e-05 0)
(-0.000783663 2.99722e-05 0)
(-0.000848146 6.76054e-05 0)
(-0.000934821 0.000100373 0)
(-0.00103984 0.000126657 0)
(-0.00115883 0.00014488 0)
(1.37445e-06 -9.86255e-06 0)
(-3.56625e-05 8.9811e-05 0)
(-0.000119072 0.000202576 0)
(-0.000242908 0.000307065 0)
(-0.000401369 0.000399411 0)
(-0.000589527 0.000477531 0)
(-0.000802079 0.000540365 0)
(-0.00103355 0.000587847 0)
(-0.00127844 0.000620499 0)
(-0.00153138 0.000639097 0)
(-0.00178722 0.000644516 0)
(-0.00204107 0.000637698 0)
(-0.00228835 0.00061965 0)
(-0.00252486 0.00059146 0)
(-0.00274677 0.000554273 0)
(-0.00295069 0.000509246 0)
(-0.00313368 0.000457463 0)
(-0.00329323 0.000399854 0)
(-0.00342721 0.000337119 0)
(-0.00353379 0.00026971 0)
(-0.00361131 0.000197871 0)
(-0.00365819 0.000121769 0)
(-0.00367289 4.17268e-05 0)
(-0.00365393 -4.14748e-05 0)
(-0.00360018 -0.000126259 0)
(-0.00351124 -0.000210076 0)
(-0.003388 -0.000289385 0)
(-0.00323317 -0.000360059 0)
(-0.00305159 -0.000418121 0)
(-0.00284996 -0.000460744 0)
(-0.00263594 -0.000487106 0)
(-0.0024169 -0.000498451 0)
(-0.00219889 -0.000497425 0)
(-0.0019863 -0.000487133 0)
(-0.00178206 -0.00047008 0)
(-0.00158839 -0.000447609 0)
(-0.00140753 -0.000419911 0)
(-0.00124218 -0.000386439 0)
(-0.00109559 -0.000346378 0)
(-0.000971365 -0.000299068 0)
(-0.000873216 -0.000244317 0)
(-0.000804595 -0.000182606 0)
(-0.00076837 -0.000115175 0)
(-0.000766513 -4.39951e-05 0)
(-0.000799576 2.83382e-05 0)
(-0.000867243 9.84297e-05 0)
(-0.000967763 0.000163241 0)
(-0.0010974 0.000219698 0)
(-0.00125129 0.000264651 0)
(-0.00142345 0.000295664 0)
(-1.34998e-07 9.54427e-06 0)
(-4.84357e-05 0.000159188 0)
(-0.000151203 0.00031768 0)
(-0.000300069 0.000461992 0)
(-0.000487481 0.00058855 0)
(-0.000707436 0.000695215 0)
(-0.000953849 0.000780754 0)
(-0.0012206 0.000845042 0)
(-0.00150162 0.000888673 0)
(-0.00179095 0.0009126 0)
(-0.00208285 0.000917966 0)
(-0.00237178 0.000906049 0)
(-0.00265253 0.000878251 0)
(-0.00292024 0.000836084 0)
(-0.00317055 0.000781133 0)
(-0.0033996 0.000714987 0)
(-0.00360411 0.000639156 0)
(-0.00378138 0.000554974 0)
(-0.00392917 0.000463511 0)
(-0.00404562 0.000365519 0)
(-0.00412906 0.000261443 0)
(-0.00417783 0.000151542 0)
(-0.00419012 3.61739e-05 0)
(-0.00416404 -8.37523e-05 0)
(-0.00409782 -0.00020622 0)
(-0.00399039 -0.000327691 0)
(-0.00384217 -0.000442965 0)
(-0.003656 -0.000545663 0)
(-0.00343768 -0.000629403 0)
(-0.00319584 -0.000689533 0)
(-0.00294053 -0.00072478 0)
(-0.00268111 -0.000737337 0)
(-0.00242488 -0.00073164 0)
(-0.00217659 -0.000712811 0)
(-0.00193887 -0.00068476 0)
(-0.00171358 -0.000649281 0)
(-0.00150301 -0.000606229 0)
(-0.00131036 -0.00055435 0)
(-0.00113976 -0.000492098 0)
(-0.000995923 -0.000418328 0)
(-0.000883722 -0.000332775 0)
(-0.000807727 -0.000236344 0)
(-0.000771732 -0.00013119 0)
(-0.000778345 -2.06215e-05 0)
(-0.000828959 9.11564e-05 0)
(-0.000922737 0.000199037 0)
(-0.001057 0.000298383 0)
(-0.00122762 0.000384417 0)
(-0.00142844 0.000452789 0)
(-0.00165176 0.000499972 0)
(-1.36943e-06 3.49866e-05 0)
(-5.93372e-05 0.000243184 0)
(-0.000179442 0.000453882 0)
(-0.000351165 0.000642763 0)
(-0.000565339 0.000806936 0)
(-0.000814849 0.000944539 0)
(-0.00109279 0.00105439 0)
(-0.0013924 0.00113642 0)
(-0.00170701 0.00119138 0)
(-0.00203015 0.00122044 0)
(-0.00235548 0.00122501 0)
(-0.00267691 0.00120673 0)
(-0.00298863 0.00116741 0)
(-0.00328525 0.00110898 0)
(-0.00356192 0.00103351 0)
(-0.00381438 0.000943074 0)
(-0.00403909 0.000839716 0)
(-0.00423318 0.000725311 0)
(-0.00439442 0.000601437 0)
(-0.00452101 0.000469246 0)
(-0.00461143 0.000329383 0)
(-0.00466408 0.000182067 0)
(-0.00467701 2.7427e-05 0)
(-0.00464782 -0.000133817 0)
(-0.00457379 -0.000299444 0)
(-0.00445265 -0.000464907 0)
(-0.00428373 -0.000622908 0)
(-0.00406946 -0.000763931 0)
(-0.00381655 -0.000878039 0)
(-0.00353615 -0.000957822 0)
(-0.00324155 -0.0010016 0)
(-0.00294465 -0.00101335 0)
(-0.00265396 -0.00100039 0)
(-0.00237399 -0.000970914 0)
(-0.00210611 -0.000930591 0)
(-0.00185101 -0.000881274 0)
(-0.00161065 -0.00082171 0)
(-0.00138886 -0.000749267 0)
(-0.00119094 -0.000661265 0)
(-0.00102318 -0.000555971 0)
(-0.000892075 -0.000433196 0)
(-0.000803749 -0.000294581 0)
(-0.000763289 -0.000143593 0)
(-0.000774232 1.47088e-05 0)
(-0.000838192 0.00017412 0)
(-0.000954345 0.000328035 0)
(-0.00111949 0.000469318 0)
(-0.00132832 0.000591436 0)
(-0.00157331 0.000688505 0)
(-0.00184513 0.000755615 0)
(-2.37512e-06 6.54733e-05 0)
(-6.86814e-05 0.000340153 0)
(-0.00020437 0.000609284 0)
(-0.000397091 0.000847427 0)
(-0.000636261 0.00105263 0)
(-0.000913669 0.00122357 0)
(-0.00122159 0.00135932 0)
(-0.00155258 0.00146003 0)
(-0.0018994 0.0015267 0)
(-0.002255 0.00156074 0)
(-0.00261253 0.00156391 0)
(-0.00296534 0.00153819 0)
(-0.00330708 0.00148575 0)
(-0.00363187 0.00140899 0)
(-0.00393438 0.00131045 0)
(-0.00420997 0.00119279 0)
(-0.00445481 0.0010587 0)
(-0.00466588 0.000910803 0)
(-0.00484098 0.000751357 0)
(-0.00497857 0.000582045 0)
(-0.00507748 0.000403718 0)
(-0.00513648 0.000216366 0)
(-0.00515367 1.9495e-05 0)
(-0.00512612 -0.000186906 0)
(-0.00504981 -0.000400893 0)
(-0.00492053 -0.000617055 0)
(-0.00473563 -0.000825532 0)
(-0.00449633 -0.00101249 0)
(-0.00421007 -0.00116266 0)
(-0.00389154 -0.0012643 0)
(-0.00355881 -0.00131555 0)
(-0.00322697 -0.00132366 0)
(-0.00290557 -0.00130039 0)
(-0.00259784 -0.00125866 0)
(-0.00230229 -0.0012062 0)
(-0.00201734 -0.00114404 0)
(-0.0017445 -0.0010685 0)
(-0.00148872 -0.000974679 0)
(-0.00125726 -0.000858343 0)
(-0.00105864 -0.000717156 0)
(-0.000901605 -0.000551214 0)
(-0.000794268 -0.000363208 0)
(-0.000743274 -0.000158242 0)
(-0.000753169 5.65874e-05 0)
(-0.000825889 0.000272858 0)
(-0.000960512 0.000481418 0)
(-0.00115316 0.000672879 0)
(-0.00139732 0.000838385 0)
(-0.00168408 0.00096997 0)
(-0.00200232 0.00106092 0)
(-3.18518e-06 0.000100207 0)
(-7.68107e-05 0.000448802 0)
(-0.000226691 0.000782367 0)
(-0.000438953 0.00107443 0)
(-0.000701791 0.00132415 0)
(-0.00100595 0.00153094 0)
(-0.00134291 0.0016943 0)
(-0.00170453 0.00181479 0)
(-0.00208299 0.00189371 0)
(-0.00247068 0.00193283 0)
(-0.00286021 0.00193422 0)
(-0.00324442 0.00190018 0)
(-0.00361645 0.00183324 0)
(-0.00396989 0.00173622 0)
(-0.00429892 0.00161217 0)
(-0.00459843 0.00146441 0)
(-0.00486419 0.0012965 0)
(-0.00509298 0.00111199 0)
(-0.00528269 0.000914096 0)
(-0.00543216 0.000705256 0)
(-0.00554097 0.000486591 0)
(-0.00560866 0.000257667 0)
(-0.00563383 1.68157e-05 0)
(-0.00561315 -0.000237555 0)
(-0.00554094 -0.000504648 0)
(-0.0054102 -0.000778656 0)
(-0.00521499 -0.0010468 0)
(-0.00495402 -0.00128937 0)
(-0.00463491 -0.00148303 0)
(-0.00427763 -0.00160875 0)
(-0.00390759 -0.00166521 0)
(-0.00354368 -0.00166549 0)
(-0.00319598 -0.00162805 0)
(-0.0028648 -0.00157321 0)
(-0.00254318 -0.001511 0)
(-0.00222595 -0.00143979 0)
(-0.00191461 -0.00135123 0)
(-0.00161651 -0.00123699 0)
(-0.00134206 -0.00109091 0)
(-0.00110294 -0.00091013 0)
(-0.000910761 -0.000695267 0)
(-0.000775984 -0.000450368 0)
(-0.000707003 -0.000182527 0)
(-0.000709441 9.87115e-05 0)
(-0.000785618 0.000382159 0)
(-0.000934493 0.000655624 0)
(-0.00115144 0.000906702 0)
(-0.00142871 0.00112356 0)
(-0.0017558 0.00129565 0)
(-0.00211962 0.00141412 0)
(-3.82841e-06 0.000138607 0)
(-8.40418e-05 0.000568189 0)
(-0.000247072 0.000971992 0)
(-0.000477803 0.0013226 0)
(-0.000763369 0.00162042 0)
(-0.00109355 0.00186574 0)
(-0.00145906 0.00205868 0)
(-0.00185109 0.00220029 0)
(-0.00226121 0.00229233 0)
(-0.00268129 0.00233694 0)
(-0.00310342 0.00233646 0)
(-0.00351995 0.0022935 0)
(-0.00392351 0.00221088 0)
(-0.00430712 0.00209178 0)
(-0.00466434 0.0019398 0)
(-0.00498941 0.00175903 0)
(-0.00527754 0.00155404 0)
(-0.00552514 0.00132965 0)
(-0.00573012 0.00109042 0)
(-0.00589194 0.000839903 0)
(-0.00601132 0.000579738 0)
(-0.00608932 0.000308932 0)
(-0.00612577 2.39596e-05 0)
(-0.00611738 -0.000279623 0)
(-0.00605661 -0.000603621 0)
(-0.00593268 -0.000942871 0)
(-0.00573471 -0.00128164 0)
(-0.00545672 -0.00159257 0)
(-0.00510496 -0.00183988 0)
(-0.00470755 -0.00199149 0)
(-0.00430171 -0.00204869 0)
(-0.00391003 -0.00203507 0)
(-0.0035421 -0.00197839 0)
(-0.0031929 -0.00191126 0)
(-0.00284569 -0.00184573 0)
(-0.00249034 -0.00177377 0)
(-0.00213005 -0.00167846 0)
(-0.00177703 -0.00154677 0)
(-0.00144646 -0.00137044 0)
(-0.00115417 -0.00114641 0)
(-0.000915116 -0.00087621 0)
(-0.00074241 -0.000565668 0)
(-0.000646369 -0.000224384 0)
(-0.000633827 0.000134976 0)
(-0.00070758 0.000497629 0)
(-0.000866516 0.000847574 0)
(-0.00110523 0.00116857 0)
(-0.0014145 0.00144516 0)
(-0.00178182 0.00166376 0)
(-0.00219168 0.0018133 0)
(-4.33996e-06 0.000180291 0)
(-9.06519e-05 0.000697646 0)
(-0.000266072 0.00117732 0)
(-0.000514513 0.00159108 0)
(-0.000822157 0.00194069 0)
(-0.00117791 0.00222744 0)
(-0.00157177 0.00245221 0)
(-0.0019943 0.00261667 0)
(-0.00243651 0.00272309 0)
(-0.00288977 0.00277396 0)
(-0.00334572 0.00277192 0)
(-0.00379622 0.00271975 0)
(-0.00423338 0.0026205 0)
(-0.00464956 0.00247765 0)
(-0.00503752 0.00229529 0)
(-0.0053906 0.00207837 0)
(-0.00570311 0.00183267 0)
(-0.0059708 0.00156462 0)
(-0.00619145 0.00128068 0)
(-0.00636521 0.00098619 0)
(-0.00649451 0.000683846 0)
(-0.00658291 0.000372202 0)
(-0.00663275 4.5129e-05 0)
(-0.00664174 -0.000306472 0)
(-0.00660056 -0.000689285 0)
(-0.00649377 -0.00110069 0)
(-0.00630367 -0.00152279 0)
(-0.00601625 -0.00191899 0)
(-0.00563228 -0.00223453 0)
(-0.0051931 -0.00241224 0)
(-0.00475569 -0.002462 0)
(-0.00434375 -0.00242636 0)
(-0.00396469 -0.00234406 0)
(-0.00360481 -0.00226908 0)
(-0.00323036 -0.00221382 0)
(-0.00282562 -0.0021563 0)
(-0.00239979 -0.00206427 0)
(-0.00197399 -0.00191952 0)
(-0.00157003 -0.0017123 0)
(-0.0012086 -0.00144029 0)
(-0.000908238 -0.00110662 0)
(-0.000684949 -0.000719584 0)
(-0.000551199 -0.000292106 0)
(-0.000515276 0.000159087 0)
(-0.00058056 0.000614653 0)
(-0.000745812 0.00105389 0)
(-0.00100468 0.00145605 0)
(-0.00134601 0.00180155 0)
(-0.00175465 0.00207341 0)
(-0.00221204 0.00225814 0)
(-4.76425e-06 0.000225045 0)
(-9.68684e-05 0.000836678 0)
(-0.000284115 0.00139771 0)
(-0.000549703 0.00187921 0)
(-0.000878942 0.00228444 0)
(-0.00125996 0.00261577 0)
(-0.00168211 0.00287495 0)
(-0.00213539 0.00306438 0)
(-0.00261031 0.00318686 0)
(-0.00309785 0.00324527 0)
(-0.00358926 0.00324242 0)
(-0.00407596 0.00318119 0)
(-0.00454949 0.0030647 0)
(-0.00500145 0.0028966 0)
(-0.00542358 0.00268142 0)
(-0.00580798 0.00242488 0)
(-0.00614758 0.00213415 0)
(-0.00643699 0.00181769 0)
(-0.0066734 0.00148458 0)
(-0.00685756 0.00114298 0)
(-0.00699413 0.000797756 0)
(-0.0070905 0.000447632 0)
(-0.00715351 8.32732e-05 0)
(-0.00718361 -0.000311545 0)
(-0.00717016 -0.000751716 0)
(-0.00709261 -0.00124012 0)
(-0.00692517 -0.00175897 0)
(-0.00664131 -0.00226293 0)
(-0.00622641 -0.00266883 0)
(-0.00574442 -0.00286817 0)
(-0.00528678 -0.00289627 0)
(-0.00486826 -0.0028302 0)
(-0.00449171 -0.00271434 0)
(-0.00413055 -0.0026429 0)
(-0.00372176 -0.00262385 0)
(-0.00324724 -0.00260546 0)
(-0.00273116 -0.00252958 0)
(-0.00220903 -0.00237577 0)
(-0.0017105 -0.00213518 0)
(-0.00126104 -0.00180825 0)
(-0.000882641 -0.00140056 0)
(-0.000594347 -0.000923742 0)
(-0.000411104 -0.000395009 0)
(-0.000342873 0.000163816 0)
(-0.000393658 0.000727987 0)
(-0.000561909 0.0012712 0)
(-0.000839947 0.00176763 0)
(-0.00121422 0.00219307 0)
(-0.00166626 0.00252655 0)
(-0.0021738 0.0027516 0)
(-5.1495e-06 0.000272777 0)
(-0.000102852 0.000984868 0)
(-0.000301464 0.00163258 0)
(-0.00058371 0.00218643 0)
(-0.000934079 0.00265123 0)
(-0.00134004 0.00303053 0)
(-0.00179038 0.00332706 0)
(-0.00227462 0.003544 0)
(-0.00278295 0.00368475 0)
(-0.003306 0.00375248 0)
(-0.00383475 0.00375013 0)
(-0.00436026 0.00368053 0)
(-0.00487351 0.00354671 0)
(-0.00536522 0.00335225 0)
(-0.0058259 0.00310188 0)
(-0.00624599 0.00280196 0)
(-0.00661647 0.00246101 0)
(-0.00692998 0.00208989 0)
(-0.00718232 0.00170117 0)
(-0.00737429 0.00130737 0)
(-0.00751297 0.000917502 0)
(-0.00761116 0.00053215 0)
(-0.00768326 0.000138686 0)
(-0.0077351 -0.00028968 0)
(-0.00775542 -0.000780657 0)
(-0.00771869 -0.00134609 0)
(-0.00759237 -0.00197233 0)
(-0.00733374 -0.00261293 0)
(-0.00689037 -0.00314776 0)
(-0.00636707 -0.00335063 0)
(-0.00591716 -0.00333148 0)
(-0.00551778 -0.00323495 0)
(-0.00516329 -0.00307208 0)
(-0.00480905 -0.00303024 0)
(-0.00434468 -0.00309543 0)
(-0.00376501 -0.00315048 0)
(-0.00312545 -0.00310241 0)
(-0.00247968 -0.00293987 0)
(-0.00186365 -0.00266006 0)
(-0.00130595 -0.00226854 0)
(-0.000831479 -0.00177379 0)
(-0.000462659 -0.00119145 0)
(-0.000217315 -0.000543868 0)
(-0.000107253 0.000141164 0)
(-0.000137184 0.000832452 0)
(-0.000305049 0.00149736 0)
(-0.000601447 0.00210413 0)
(-0.00101015 0.00262305 0)
(-0.00150889 0.00302824 0)
(-0.00207096 0.00329929 0)
(-5.53826e-06 0.000323461 0)
(-0.000108677 0.00114181 0)
(-0.000318204 0.00188137 0)
(-0.000616553 0.00251215 0)
(-0.000987467 0.00304059 0)
(-0.00141787 0.00347149 0)
(-0.0018961 0.00380863 0)
(-0.00241136 0.00405607 0)
(-0.0029536 0.00421777 0)
(-0.00351332 0.00429721 0)
(-0.00408132 0.00429736 0)
(-0.00464842 0.00422084 0)
(-0.00520508 0.00407035 0)
(-0.00574119 0.00384911 0)
(-0.00624582 0.0035616 0)
(-0.00670739 0.00321441 0)
(-0.00711426 0.00281714 0)
(-0.00745598 0.00238309 0)
(-0.00772555 0.00192923 0)
(-0.00792239 0.00147451 0)
(-0.00805545 0.00103542 0)
(-0.00814448 0.000617892 0)
(-0.00821602 0.000207172 0)
(-0.00828522 -0.0002394 0)
(-0.00833945 -0.000768944 0)
(-0.00834752 -0.00140406 0)
(-0.00827752 -0.0021365 0)
(-0.00807754 -0.00294099 0)
(-0.00761363 -0.00368539 0)
(-0.00705788 -0.00383898 0)
(-0.00667694 -0.00372457 0)
(-0.00634599 -0.00362856 0)
(-0.00603945 -0.0033833 0)
(-0.00568698 -0.00344157 0)
(-0.00511148 -0.00367519 0)
(-0.00436994 -0.00383375 0)
(-0.00357138 -0.00381455 0)
(-0.00277795 -0.00363659 0)
(-0.00202441 -0.0033081 0)
(-0.00133946 -0.00284035 0)
(-0.000750797 -0.00224353 0)
(-0.000285202 -0.0015375 0)
(3.5925e-05 -0.000750542 0)
(0.000198408 8.27125e-05 0)
(0.000196622 0.00092348 0)
(3.3205e-05 0.00173166 0)
(-0.000280758 0.00246817 0)
(-0.000726227 0.00309655 0)
(-0.0012767 0.00358479 0)
(-0.00190002 0.00390767 0)
(-5.95718e-06 0.000377081 0)
(-0.000114317 0.00130703 0)
(-0.000334221 0.0021434 0)
(-0.000647937 0.00285568 0)
(-0.00103856 0.00345189 0)
(-0.00149258 0.00393819 0)
(-0.00199805 0.00431949 0)
(-0.00254399 0.00460078 0)
(-0.00312028 0.00478665 0)
(-0.00371744 0.00488086 0)
(-0.00432632 0.00488631 0)
(-0.00493763 0.00480531 0)
(-0.00554151 0.00463991 0)
(-0.0061271 0.00439257 0)
(-0.00668211 0.00406695 0)
(-0.00719275 0.00366906 0)
(-0.0076441 0.00320873 0)
(-0.0080214 0.00270125 0)
(-0.00831265 0.00216851 0)
(-0.00851306 0.0016384 0)
(-0.00863123 0.00113985 0)
(-0.0086947 0.00069082 0)
(-0.00874955 0.000278402 0)
(-0.00882629 -0.000165889 0)
(-0.0089049 -0.000720115 0)
(-0.00893978 -0.00141515 0)
(-0.00891185 -0.00223023 0)
(-0.00879873 -0.00318817 0)
(-0.00833132 -0.00430782 0)
(-0.00779679 -0.0042589 0)
(-0.00762003 -0.00398181 0)
(-0.00744268 -0.0040031 0)
(-0.00721273 -0.00358671 0)
(-0.00679505 -0.00395954 0)
(-0.00597798 -0.00445571 0)
(-0.00501356 -0.00469831 0)
(-0.00404346 -0.0046895 0)
(-0.00309406 -0.00448497 0)
(-0.00219017 -0.00409738 0)
(-0.00136217 -0.00354188 0)
(-0.000641955 -0.00282735 0)
(-6.25369e-05 -0.00197754 0)
(0.0003497 -0.00102766 0)
(0.000577202 -2.05964e-05 0)
(0.000612604 0.000996035 0)
(0.000458613 0.00197292 0)
(0.000127786 0.00286192 0)
(-0.000357801 0.00361826 0)
(-0.000966822 0.00420258 0)
(-0.00166045 0.00458395 0)
(-6.41028e-06 0.000433571 0)
(-0.000119651 0.00147998 0)
(-0.000349225 0.00241786 0)
(-0.000677279 0.00321606 0)
(-0.00108638 0.00388417 0)
(-0.00156277 0.00442976 0)
(-0.0020943 0.00485897 0)
(-0.00266999 0.00517781 0)
(-0.00327982 0.00539155 0)
(-0.00391455 0.00550426 0)
(-0.00456524 0.00551876 0)
(-0.00522276 0.00543688 0)
(-0.00587724 0.00525985 0)
(-0.00651741 0.00498886 0)
(-0.00712999 0.00462595 0)
(-0.00769923 0.00417536 0)
(-0.00820677 0.00364565 0)
(-0.00863232 0.00305255 0)
(-0.00895611 0.00242242 0)
(-0.00916447 0.0017942 0)
(-0.00926023 0.00121623 0)
(-0.00927711 0.000730469 0)
(-0.0092939 0.000336505 0)
(-0.00936802 -8.11378e-05 0)
(-0.0094565 -0.000654927 0)
(-0.00947048 -0.00142004 0)
(-0.00939273 -0.00228968 0)
(-0.00930881 -0.00328088 0)
(-0.00891495 -0.0049536 0)
(-0.00865771 -0.00436288 0)
(-0.00879961 -0.00411093 0)
(-0.00897545 -0.00409426 0)
(-0.00885073 -0.00383687 0)
(-0.00796597 -0.0048647 0)
(-0.00675735 -0.00550698 0)
(-0.00561768 -0.00574348 0)
(-0.00451635 -0.00572545 0)
(-0.00342235 -0.00549172 0)
(-0.00236498 -0.00503851 0)
(-0.00138292 -0.00438837 0)
(-0.000514308 -0.00354239 0)
(0.000197538 -0.00252814 0)
(0.000718477 -0.00138967 0)
(0.00102611 -0.000180046 0)
(0.0011102 0.00104242 0)
(0.000972398 0.00221737 0)
(0.000626208 0.00328577 0)
(9.67813e-05 0.00419247 0)
(-0.000578899 0.00488911 0)
(-0.00135382 0.00533773 0)
(-6.87949e-06 0.00049276 0)
(-0.000124482 0.00165993 0)
(-0.000362773 0.00270368 0)
(-0.000703763 0.00359202 0)
(-0.00112966 0.00433603 0)
(-0.00162656 0.00494477 0)
(-0.00218229 0.00542574 0)
(-0.002786 0.00578608 0)
(-0.00342799 0.00603181 0)
(-0.00409936 0.00616738 0)
(-0.00479165 0.00619558 0)
(-0.00549618 0.00611778 0)
(-0.00620347 0.0059342 0)
(-0.00690246 0.00564437 0)
(-0.00757977 0.00524788 0)
(-0.00821867 0.00474571 0)
(-0.00879808 0.00414281 0)
(-0.00929193 0.00345243 0)
(-0.00967011 0.00270258 0)
(-0.00990349 0.00194339 0)
(-0.00997835 0.00125068 0)
(-0.00992604 0.000710989 0)
(-0.00988241 0.000364881 0)
(-0.00995611 2.85101e-06 0)
(-0.0100496 -0.000611634 0)
(-0.00999152 -0.00151452 0)
(-0.00970186 -0.00251519 0)
(-0.00917195 -0.00353878 0)
(-0.00873405 -0.00532597 0)
(-0.00879909 -0.00406373 0)
(-0.00973699 -0.00341377 0)
(-0.0108406 -0.00371738 0)
(-0.0101263 -0.00505359 0)
(-0.0084782 -0.00610176 0)
(-0.00731848 -0.00669818 0)
(-0.00616514 -0.0069126 0)
(-0.00497818 -0.00689228 0)
(-0.00376941 -0.00664212 0)
(-0.0025704 -0.00613332 0)
(-0.00142548 -0.00539266 0)
(-0.000389443 -0.00440701 0)
(0.000477043 -0.00320875 0)
(0.00112801 -0.0018548 0)
(0.00153479 -0.000411278 0)
(0.001683 0.00105083 0)
(0.00157157 0.00245833 0)
(0.00121368 0.00373895 0)
(0.000637347 0.00482438 0)
(-0.000114034 0.00565436 0)
(-0.000983565 0.00618164 0)
(-7.33199e-06 0.000554347 0)
(-0.000128576 0.00184601 0)
(-0.000374329 0.00299952 0)
(-0.000726413 0.00398183 0)
(-0.00116686 0.00480547 0)
(-0.00168173 0.00548109 0)
(-0.00225899 0.00601765 0)
(-0.00288805 0.0064235 0)
(-0.00355961 0.00670558 0)
(-0.00426533 0.00686885 0)
(-0.00499736 0.00691623 0)
(-0.00574774 0.00684872 0)
(-0.00650787 0.0066656 0)
(-0.00726779 0.00636459 0)
(-0.00801532 0.0059422 0)
(-0.00873464 0.00539477 0)
(-0.0094043 0.004721 0)
(-0.0099945 0.00392705 0)
(-0.0104646 0.00303598 0)
(-0.0107633 0.0021031 0)
(-0.0108419 0.00123666 0)
(-0.0107036 0.000601987 0)
(-0.010586 0.000359007 0)
(-0.0107005 0.000108373 0)
(-0.0108273 -0.000606326 0)
(-0.0107012 -0.0017469 0)
(-0.0102567 -0.00304208 0)
(-0.00920739 -0.00453709 0)
(-0.00849452 -0.00540447 0)
(-0.00874794 -0.00356115 0)
(-0.0095401 -0.00204038 0)
(-0.0101905 -0.0033038 0)
(-0.00982267 -0.00645897 0)
(-0.00880593 -0.0073165 0)
(-0.00768973 -0.00786087 0)
(-0.00658683 -0.00809709 0)
(-0.00542542 -0.00811328 0)
(-0.00417304 -0.00789564 0)
(-0.00285239 -0.00737729 0)
(-0.00153273 -0.00656923 0)
(-0.000303034 -0.00544471 0)
(0.000747249 -0.00404453 0)
(0.00155561 -0.00244676 0)
(0.00208654 -0.000734965 0)
(0.00232031 0.00100531 0)
(0.0022508 0.00268648 0)
(0.00188839 0.00422001 0)
(0.00126307 0.00552026 0)
(0.00042536 0.00651059 0)
(-0.000555705 0.00713098 0)
(-7.73197e-06 0.000617893 0)
(-0.000131697 0.00203708 0)
(-0.000383316 0.00330364 0)
(-0.000744173 0.00438325 0)
(-0.00119631 0.00528987 0)
(-0.00172588 0.00603579 0)
(-0.00232107 0.00663155 0)
(-0.0029717 0.00708684 0)
(-0.00366894 0.00740965 0)
(-0.00440505 0.00760565 0)
(-0.00517284 0.00767811 0)
(-0.00596526 0.00762799 0)
(-0.006775 0.00745392 0)
(-0.00759402 0.00715204 0)
(-0.00841284 0.0067159 0)
(-0.00921912 0.00613678 0)
(-0.00999508 0.00540528 0)
(-0.0107133 0.00451555 0)
(-0.0113294 0.00347504 0)
(-0.0117694 0.00232607 0)
(-0.011923 0.00119438 0)
(-0.0117031 0.000372367 0)
(-0.0115125 0.000341619 0)
(-0.0117641 0.000335426 0)
(-0.0119961 -0.000600638 0)
(-0.0117556 -0.00211043 0)
(-0.0111702 -0.0036894 0)
(-0.0107065 -0.00534889 0)
(-0.0108127 -0.00525055 0)
(-0.0108269 -0.00353933 0)
(-0.00998392 -0.00211621 0)
(-0.00893281 -0.00360847 0)
(-0.0085852 -0.00675707 0)
(-0.00845055 -0.00805255 0)
(-0.00788189 -0.00875476 0)
(-0.00704743 -0.00913243 0)
(-0.00599482 -0.00929758 0)
(-0.00472782 -0.00921567 0)
(-0.00328544 -0.00877067 0)
(-0.00176522 -0.00794405 0)
(-0.0002996 -0.00668979 0)
(0.000974443 -0.0050681 0)
(0.0019746 -0.00319516 0)
(0.00266197 -0.00117744 0)
(0.00301058 0.000884808 0)
(0.00300539 0.00288863 0)
(0.0026499 0.00472562 0)
(0.00197406 0.00628682 0)
(0.00103667 0.00747284 0)
(-7.79438e-05 0.00820565 0)
(-8.05151e-06 0.000682833 0)
(-0.000133633 0.00223174 0)
(-0.000389165 0.00361387 0)
(-0.000755976 0.00479347 0)
(-0.0012163 0.00578589 0)
(-0.00175651 0.0066051 0)
(-0.00236515 0.00726328 0)
(-0.00303245 0.0077716 0)
(-0.00375009 0.00813924 0)
(-0.00451081 0.00837277 0)
(-0.00530805 0.0084761 0)
(-0.00613561 0.00845052 0)
(-0.00698755 0.00829453 0)
(-0.00785809 0.00800348 0)
(-0.00874131 0.00756911 0)
(-0.00963027 0.00697906 0)
(-0.0105152 0.00621689 0)
(-0.0113801 0.00526333 0)
(-0.0121955 0.00410143 0)
(-0.0128931 0.00273365 0)
(-0.0132873 0.00122065 0)
(-0.0130689 -8.57945e-06 0)
(-0.0128733 0.000386438 0)
(-0.0134128 0.000904658 0)
(-0.0137097 -0.000612081 0)
(-0.0133 -0.00254239 0)
(-0.0128375 -0.00414784 0)
(-0.0127551 -0.00533307 0)
(-0.0128839 -0.00512795 0)
(-0.0125583 -0.00419197 0)
(-0.0114503 -0.00356666 0)
(-0.0100946 -0.00465658 0)
(-0.00935859 -0.00688748 0)
(-0.00904045 -0.00840537 0)
(-0.00854767 -0.00938671 0)
(-0.00780899 -0.0100151 0)
(-0.00683321 -0.0104261 0)
(-0.0055501 -0.0106089 0)
(-0.00395467 -0.0103428 0)
(-0.00217952 -0.00956645 0)
(-0.000414424 -0.00819187 0)
(0.00113222 -0.00631867 0)
(0.00236173 -0.00413503 0)
(0.00324421 -0.00177206 0)
(0.00374598 0.000660666 0)
(0.0038359 0.00304575 0)
(0.00350348 0.00525002 0)
(0.00277549 0.00713254 0)
(0.00172033 0.00856168 0)
(0.00044248 0.00943359 0)
(-8.27549e-06 0.000748498 0)
(-0.000134212 0.00242832 0)
(-0.000391344 0.00392762 0)
(-0.000760797 0.00520912 0)
(-0.0012252 0.00628949 0)
(-0.00177127 0.00718438 0)
(-0.002388 0.00790766 0)
(-0.00306603 0.00847205 0)
(-0.00379747 0.00888801 0)
(-0.0045754 0.00916319 0)
(-0.00539362 0.00930234 0)
(-0.00624647 0.00930735 0)
(-0.00712895 0.00917715 0)
(-0.00803685 0.00890732 0)
(-0.00896693 0.00848965 0)
(-0.00991684 0.00791149 0)
(-0.0108848 0.00715484 0)
(-0.0118694 0.0061946 0)
(-0.0128692 0.0049972 0)
(-0.013886 0.00354002 0)
(-0.0148338 0.00173378 0)
(-0.0150641 -0.000365719 0)
(-0.0152998 0.00093693 0)
(-0.0158223 0.00135066 0)
(-0.0153374 -0.0012493 0)
(-0.0144321 -0.00315046 0)
(-0.0139561 -0.00446339 0)
(-0.0138759 -0.00525288 0)
(-0.0138866 -0.00527749 0)
(-0.0135114 -0.00493046 0)
(-0.0125844 -0.0048642 0)
(-0.0114617 -0.00577527 0)
(-0.0106745 -0.00740384 0)
(-0.0101704 -0.00886387 0)
(-0.0096126 -0.010011 0)
(-0.00888985 -0.0108608 0)
(-0.00797193 -0.0115236 0)
(-0.00665886 -0.012113 0)
(-0.00487701 -0.0121432 0)
(-0.002791 -0.0115051 0)
(-0.000651191 -0.0100112 0)
(0.00121313 -0.00783546 0)
(0.00270271 -0.00530419 0)
(0.00382452 -0.0025604 0)
(0.00452962 0.000294136 0)
(0.00475583 0.00313175 0)
(0.0044673 0.00578607 0)